260
i =        0, time =        0.000, E =     -6135.5820061331
O         0.0000000000        0.0000000000        0.0000000000
O         3.8261550000        0.0000000000        0.0000000000
O         7.6523100000        0.0000000000        0.0000000000
O        11.4784640000        0.0000000000        0.0000000000
O        15.3046190000        0.0000000000        0.0000000000
O        -1.9130770000        3.3135470000        0.0000000000
O         1.9130770000        3.3135470000        0.0000000000
O         5.7392320000        3.3135470000        0.0000000000
O         9.5653870000        3.3135470000        0.0000000000
O        13.3915420000        3.3135470000        0.0000000000
O        -3.8261550000        6.6270940000        0.0000000000
O         0.0000000000        6.6270940000        0.0000000000
O         3.8261550000        6.6270940000        0.0000000000
O         7.6523100000        6.6270940000        0.0000000000
O        11.4784640000        6.6270940000        0.0000000000
O        -5.7392320000        9.9406420000        0.0000000000
O        -1.9130770000        9.9406420000        0.0000000000
O         1.9130770000        9.9406420000        0.0000000000
O         5.7392320000        9.9406420000        0.0000000000
O         9.5653870000        9.9406420000        0.0000000000
O        -7.6523100000       13.2541890000        0.0000000000
O        -3.8261550000       13.2541890000        0.0000000000
O         0.0000000000       13.2541890000        0.0000000000
O         3.8261550000       13.2541890000        0.0000000000
O         7.6523100000       13.2541890000        0.0000000000
O         1.9130770000        1.1045160000        1.5620210000
O         5.7392320000        1.1045160000        1.5620210000
O         9.5653870000        1.1045160000        1.5620210000
O        13.3915420000        1.1045160000        1.5620210000
O        17.2176970000        1.1045160000        1.5620210000
O         0.0000000000        4.4180630000        1.5620210000
O         3.8261550000        4.4180630000        1.5620210000
O         7.6523100000        4.4180630000        1.5620210000
O        11.4784640000        4.4180630000        1.5620210000
O        15.3046190000        4.4180630000        1.5620210000
O        -1.9130770000        7.7316100000        1.5620210000
O         1.9130770000        7.7316100000        1.5620210000
O         5.7392320000        7.7316100000        1.5620210000
O         9.5653870000        7.7316100000        1.5620210000
O        13.3915420000        7.7316100000        1.5620210000
O        -3.8261550000       11.0451570000        1.5620210000
O         0.0000000000       11.0451570000        1.5620210000
O         3.8261550000       11.0451570000        1.5620210000
O         7.6523100000       11.0451570000        1.5620210000
O        11.4784640000       11.0451570000        1.5620210000
O        -5.7392320000       14.3587050000        1.5620210000
O        -1.9130770000       14.3587050000        1.5620210000
O         1.9130770000       14.3587050000        1.5620210000
O         5.7392320000       14.3587050000        1.5620210000
O         9.5653870000       14.3587050000        1.5620210000
O         0.0044962128        2.2007786773        3.1118657425
O         3.8363201077        2.2135311251        3.1163644776
O         7.6526915646        2.2127749370        3.1210121584
O        11.4824691555        2.2121532357        3.1162966961
O        15.2952132555        2.2146012300        3.1167166974
O        -1.9317416472        5.5226668354        3.1161592344
O         1.9267273101        5.5193914206        3.1135507540
O         5.7376099359        5.5167932261        3.1180278383
O         9.5647873497        5.5231357717        3.1234172128
O        13.3874529865        5.5232625665        3.1208455157
O        -3.8437501206        8.8276816592        3.1201326392
O        -0.0285649063        8.8277322488        3.1252010460
O         3.8418408067        8.8252376486        3.1202556287
O         7.6547849503        8.8331381147        3.1209013144
O        11.4738153399        8.8407815039        3.1168727560
O        -5.7514760295       12.1414381046        3.1130873453
O        -1.9071022822       12.1792690292        3.1192487746
O         1.9376798823       12.1285415374        3.1204860824
O         5.7505552401       12.1351367030        3.1153086530
O         9.5650061033       12.1402287491        3.1174450681
O        -7.6476936584       15.4727628022        3.1150463284
O        -3.8190842448       15.4798951768        3.1176208016
O         0.0009599500       15.4798301945        3.1210997783
O         3.8215803383       15.4767193934        3.1155957039
O         7.6632743202       15.4618193238        3.1141211525
O         0.0027253275       -0.0032419507        4.7510884602
O         3.8037248623        0.0000142582        4.7362025977
O         7.6236465960       -0.0000553224        4.7352499518
O        11.5111476087       -0.0038624188        4.7319135455
O        15.3260907783       -0.0037198583        4.7306383310
O        -1.9009493211        3.2999665286        4.7276366276
O         1.9019173256        3.2968600731        4.7312302514
O         5.7200282544        3.3022209072        4.7439903355
O         9.5971699763        3.2987904054        4.6496562321
O        13.4086826039        3.3041270074        4.7382457263
O        -3.8094081157        6.6057774801        4.7410255452
O        -0.0023037428        6.5942607443        4.7190371868
O         3.7974944640        6.6044954348        4.7396210850
O         7.6209974263        6.6107331012        4.6635419692
O        11.4773601523        6.6644138314        4.6628710219
O        -5.7556788854        9.9728443857        4.7325898209
O        -1.9459254206        9.9704435558        4.7172460014
O         1.9183078854        9.9222736761        4.7229771372
O         5.7546047366        9.9644871457        4.7386923495
O         9.5647029910        9.9614324623        4.7394815008
O        -7.6617848952       13.2769283282        4.7349979576
O        -3.8461177019       13.2689131476        4.7286333816
O         0.0282432330       13.2563344652        4.7344750031
O         3.8458430006       13.2659460119        4.7304032398
O         7.6596659795       13.2732818949        4.7322935027
O         1.9033401747        1.1364560395        6.3167610926
O         5.6835041514        1.0799565018        6.2582952237
O         9.5858853481        1.0035312154        6.2475090256
O        13.4573990675        1.0811149351        6.2554262496
O        17.2166394966        1.1371179621        6.2670440329
O        -0.0006534913        4.4013176673        6.2553500477
O         3.7726170830        4.3801158993        6.2562356661
O         7.6450338296        4.3853617136        6.3267880266
O        11.5118278151        4.4460273278        6.3343482760
O        15.3564182410        4.3756265220        6.2568281453
O        -1.8539177714        7.7789093114        6.2600628229
O         1.8053796347        7.7640818933        6.2808624222
O         5.6280853109        7.7517383355        6.2574324483
O         9.5264930837        7.7522699237        6.3396569140
O        13.4653081773        7.8156572142        6.2550211624
O        -3.8268166109       11.0724595990        6.2475863836
O        -0.0017182023       11.0036223529        6.2730945638
O         3.8081878398       11.0547784538        6.2509120409
O         7.6651285316       11.1161234641        6.2590742849
O        11.4609403406       11.1180423001        6.2588332910
O        -5.7352108049       14.3573226465        6.2590289751
O        -1.9073830927       14.3391971717        6.2512819031
O         1.9084214647       14.3411152753        6.2574467437
O         5.7302343752       14.3545180147        6.2579433223
O         9.5387303230       14.3398700818        6.3274782290
O        -0.0332062947        2.2167226828        7.9366253507
O         3.8329031447        2.2099673291        7.9244509138
O         7.5430453398        2.0579110122        7.9592655812
O        11.5949313908        2.0506393620        7.8705657384
O        15.2965406517        2.2132613254        8.0125238921
O        -1.8704599699        5.5216374565        7.8706746372
O         1.8699860354        5.5159412006        7.8709513303
O         5.5143983362        5.4428220445        7.9673536961
O        13.6370994090        5.5261027351        7.9426344876
O        -3.7986623398        8.8967673202        7.8876471322
O        -0.0393867401        8.8224622794        8.2360296524
O         3.7647247699        8.8621398924        7.8826999562
O         7.5327897272        9.0471059510        7.9396148793
O        11.5246571224        9.0578743927        7.9414067609
O        -5.7187497042       12.1929677075        7.8712655378
O        -1.9170421519       12.1715126992        7.9211310435
O         1.9128467603       12.1557042939        7.9227654284
O         5.7125808846       12.1883426346        7.8680465318
O         9.5627854671       12.1394451447        8.0673091327
O        -7.6315284054       15.4874700217        7.8702838214
O        -3.8461810860       15.4292349497        7.8737666164
O        -0.0310119153       15.4111030171        7.8794621506
O         3.8480235284       15.4240799802        7.8722052737
O         7.6250685192       15.4920723870        7.8697603421
Ce         0.0000000000        2.2090320000        0.7810110000
Ce         3.8261550000        2.2090320000        0.7810110000
Ce         7.6523100000        2.2090320000        0.7810110000
Ce        11.4784640000        2.2090320000        0.7810110000
Ce        15.3046190000        2.2090320000        0.7810110000
Ce        -1.9130770000        5.5225790000        0.7810110000
Ce         1.9130770000        5.5225790000        0.7810110000
Ce         5.7392320000        5.5225790000        0.7810110000
Ce         9.5653870000        5.5225790000        0.7810110000
Ce        13.3915420000        5.5225790000        0.7810110000
Ce        -3.8261550000        8.8361260000        0.7810110000
Ce         0.0000000000        8.8361260000        0.7810110000
Ce         3.8261550000        8.8361260000        0.7810110000
Ce         7.6523100000        8.8361260000        0.7810110000
Ce        11.4784640000        8.8361260000        0.7810110000
Ce        -5.7392320000       12.1496730000        0.7810110000
Ce        -1.9130770000       12.1496730000        0.7810110000
Ce         1.9130770000       12.1496730000        0.7810110000
Ce         5.7392320000       12.1496730000        0.7810110000
Ce         9.5653870000       12.1496730000        0.7810110000
Ce        -7.6523100000       15.4632200000        0.7810110000
Ce        -3.8261550000       15.4632200000        0.7810110000
Ce         0.0000000000       15.4632200000        0.7810110000
Ce         3.8261550000       15.4632200000        0.7810110000
Ce         7.6523100000       15.4632200000        0.7810110000
Ce         1.9172088240        1.1082269212        3.9205743595
Ce         5.7394190909        1.1123515220        3.9172514751
Ce         9.5741807131        1.1097787337        3.9015267930
Ce        13.3928862037        1.1163539723        3.9183165436
Ce        17.2139528453        1.1083927310        3.9151519013
Ce        -0.0013111248        4.3973963506        3.8976398707
Ce         3.8288723872        4.4061682062        3.9179596950
Ce         7.6601085332        4.4210359930        3.9472313959
Ce        11.4819862395        4.4388441752        3.9456942339
Ce        15.2998627013        4.4080512582        3.9228591620
Ce        -1.9259435863        7.7257958060        3.9112910755
Ce         1.9067933835        7.7235481846        3.9132035442
Ce         5.7496668773        7.7201568705        3.9093842561
Ce         9.5570997045        7.7185512956        3.9577392323
Ce        13.3716818432        7.7361633702        3.9120619922
Ce        -3.8502688831       11.0605099133        3.8874671365
Ce         0.0014622928       11.0491669971        3.9211011764
Ce         3.8448651774       11.0444976411        3.8907971371
Ce         7.6627491035       11.0431183952        3.9181647677
Ce        11.4663568694       11.0417617021        3.9177419083
Ce        -5.7444518839       14.3679494187        3.9193761242
Ce        -1.9148240931       14.3698370621        3.9129255506
Ce         1.9257543297       14.3641727268        3.9146055534
Ce         5.7456341669       14.3640467283        3.9151266602
Ce         9.5647420777       14.3566608701        3.9238488339
Ce        -0.0120585959        0.0153090080        7.0947082705
Ce         3.8186207627        0.0014308508        7.0849518152
Ce         7.6470375876       -0.0514197040        7.0704794391
Ce        11.4989974046       -0.0432462520        7.0661990614
Ce        15.3046920896       -0.0050797201        7.0771263960
Ce        -1.9147809738        3.2988025986        7.0956221778
Ce         1.9201407348        3.2930562581        7.0968963464
Ce         5.7152297452        3.2795168538        7.1009027855
Ce         9.5797190729        3.2013506564        7.0193544684
Ce        13.4057496725        3.3155149258        7.1073566827
Ce        -3.7683161856        6.6506942384        7.0715190277
Ce        -0.0134331028        6.5414258460        7.0433069321
Ce         3.7398333857        6.6313716391        7.0682675786
Ce         7.4926267065        6.6727849274        7.1193737607
Ce        11.5937150125        6.7452549157        7.1299900136
Ce        -5.7315609283       10.0064227972        7.0762061439
Ce        -1.9931845636       10.0037993360        7.0408241567
Ce         1.9699883151        9.9936292558        7.0652162927
Ce         5.7122945166        9.9875563121        7.0737767639
Ce         9.5469456051        9.9613292713        7.1010450018
Ce        -7.6369410929       13.2758326334        7.0884251991
Ce        -3.8340577884       13.2909475798        7.0805161874
Ce        -0.0024548950       13.2504345598        7.0969365960
Ce         3.8293055543       13.2831333839        7.0819473289
Ce         7.6286008390       13.2699745964        7.0903570564
Au         7.9600973344        8.0894163283       10.0586900268
Au         9.5016429361       10.6971018109       10.1170152901
Au         8.1579638149        3.0045062463       10.0470158074
Au         9.5806590895        5.6023915123        9.6386963653
Au        11.0584244107        3.0565831349       10.0294756115
Au        11.0341146076        8.1956751325       10.0902687068
Au         6.5879582053        5.5421686881       10.0532893692
Au        12.5566674224        5.6616666955       10.1053412554
Pt -0.6123049695 9.0298138186 10.1270735525
 Au        13.9559188707        3.0933939311       10.1544454632
Au         9.4083807385        9.1133891855       12.3561380413
Au         7.9422650541        6.4417904465       12.3016758651
Au         9.6128088119        3.8306269353       12.2827640910
Au         6.6162485837        3.8007436105       12.2646429192
Au        11.0989114179        6.5643202857       12.2838491689
Au        12.5316627942        3.8377163808       12.4318944657
Au         9.3816745724        7.3498986753       14.5563671937
Au         8.0623309424        4.7622830641       14.5896869851
Au        10.9908859208        4.8053701668       14.5806057058
Au         9.5006942402        5.5868209986       16.8949575097
C        -1.1959292305        9.2981420194       11.8940564793
O        -1.5027975473        9.5022581425       12.9751466593
C         5.1162228396        2.9018870278       13.2677607648
O         4.4391981362        2.4677650032       14.1056160725
C         9.1880518644        5.1366777402       18.7742751641
O         8.9978124775        4.6757564286       19.8266865847
C         9.3660645714        8.8016326756       15.9794591130
O         9.0794733530        9.7261952279       16.6137341274
C        12.5135746827        4.3674238904       15.9444736116
O        13.0122807311        3.6590811718       16.7208129515
C        14.0679968110        2.8076196244       13.2755534878
O        14.8122649786        2.0760479333       13.7619816897
C         9.1288759851       11.0537214463       13.5151698827
O         8.9070595391       11.9837465448       14.1638308129
C         7.1255384155        3.6783876127       16.0171012557
O         6.7166052107        3.1990172390       16.9895023234
260
i =       50, time =       50.000, E =     -6135.2276196587
O         0.0000000000        0.0000000000        0.0000000000
O         3.8261550000        0.0000000000        0.0000000000
O         7.6523100000        0.0000000000        0.0000000000
O        11.4784640000        0.0000000000        0.0000000000
O        15.3046190000        0.0000000000        0.0000000000
O        -1.9130770000        3.3135470000        0.0000000000
O         1.9130770000        3.3135470000        0.0000000000
O         5.7392320000        3.3135470000        0.0000000000
O         9.5653870000        3.3135470000        0.0000000000
O        13.3915420000        3.3135470000        0.0000000000
O        -3.8261550000        6.6270940000        0.0000000000
O         0.0000000000        6.6270940000        0.0000000000
O         3.8261550000        6.6270940000        0.0000000000
O         7.6523100000        6.6270940000        0.0000000000
O        11.4784640000        6.6270940000        0.0000000000
O        -5.7392320000        9.9406420000        0.0000000000
O        -1.9130770000        9.9406420000        0.0000000000
O         1.9130770000        9.9406420000        0.0000000000
O         5.7392320000        9.9406420000        0.0000000000
O         9.5653870000        9.9406420000        0.0000000000
O        -7.6523100000       13.2541890000        0.0000000000
O        -3.8261550000       13.2541890000        0.0000000000
O         0.0000000000       13.2541890000        0.0000000000
O         3.8261550000       13.2541890000        0.0000000000
O         7.6523100000       13.2541890000        0.0000000000
O         1.9130770000        1.1045160000        1.5620210000
O         5.7392320000        1.1045160000        1.5620210000
O         9.5653870000        1.1045160000        1.5620210000
O        13.3915420000        1.1045160000        1.5620210000
O        17.2176970000        1.1045160000        1.5620210000
O         0.0000000000        4.4180630000        1.5620210000
O         3.8261550000        4.4180630000        1.5620210000
O         7.6523100000        4.4180630000        1.5620210000
O        11.4784640000        4.4180630000        1.5620210000
O        15.3046190000        4.4180630000        1.5620210000
O        -1.9130770000        7.7316100000        1.5620210000
O         1.9130770000        7.7316100000        1.5620210000
O         5.7392320000        7.7316100000        1.5620210000
O         9.5653870000        7.7316100000        1.5620210000
O        13.3915420000        7.7316100000        1.5620210000
O        -3.8261550000       11.0451570000        1.5620210000
O         0.0000000000       11.0451570000        1.5620210000
O         3.8261550000       11.0451570000        1.5620210000
O         7.6523100000       11.0451570000        1.5620210000
O        11.4784640000       11.0451570000        1.5620210000
O        -5.7392320000       14.3587050000        1.5620210000
O        -1.9130770000       14.3587050000        1.5620210000
O         1.9130770000       14.3587050000        1.5620210000
O         5.7392320000       14.3587050000        1.5620210000
O         9.5653870000       14.3587050000        1.5620210000
O        -0.0008576590        2.2959330080        3.2708075819
O         3.8458861530        2.1494055184        3.2084799395
O         7.5429132963        2.1460312601        3.0819559092
O        11.4090799986        2.1793369310        3.0990504493
O        15.4027319472        2.2449682811        3.1108428240
O        -1.9272414581        5.5285443430        3.1359921015
O         1.8384903880        5.5531981907        3.1969561978
O         5.6508456896        5.4684481864        3.1120615690
O         9.4909653250        5.5153123769        3.1174986211
O        13.4613409801        5.4768757126        3.1188266011
O        -3.8253308027        8.9025811059        3.0000483124
O         0.0001944517        8.8137219584        3.1568952095
O         3.7941394109        8.9088821376        2.9980970370
O         7.5388101153        8.8277401130        3.1450111933
O        11.3875949922        8.8777397487        2.9952891672
O        -5.6277452237       12.1716818859        3.0503930201
O        -1.9656657182       12.0494344250        3.0414291281
O         1.8622329284       12.1226621554        3.0918716210
O         5.7620820841       12.1475844644        3.0405824272
O         9.5008011984       12.1813263376        3.0290597591
O        -7.6938373989       15.5263547768        3.0561719018
O        -3.8598874473       15.4519411676        3.1148895953
O         0.0329519800       15.4641797839        3.1327445643
O         3.8888214516       15.4335057827        3.1123314232
O         7.6377256638       15.5609754680        3.0099747724
O         0.0002446423       -0.0407419714        4.8308755851
O         3.8556985360       -0.1051492428        4.7488059430
O         7.6390710207       -0.2201966649        4.8568369541
O        11.5544393650       -0.1080441850        4.6319699433
O        15.2940267583       -0.0342940201        4.7400891532
O        -1.9441831901        3.3316151598        4.8278132005
O         1.9214621189        3.1919437400        4.8761784680
O         5.8243559547        3.3522683301        4.6134682831
O         9.4436616894        3.3607386678        4.6123030295
O        13.4536032012        3.4081929494        4.7327035220
O        -3.7470607566        6.6063000798        4.8177848630
O         0.0274373259        6.5910477605        4.7292682262
O         3.6935334960        6.6494136201        4.6505279093
O         7.5216701834        6.6631614841        4.6630254137
O        11.5358341180        6.7380383101        4.7188613640
O        -5.7761785148        9.9416766289        4.9326815965
O        -1.8444158862        9.9619147636        4.7719476109
O         1.9326387938       10.0245638599        4.7535103597
O         5.6573816598       10.0106769179        4.6669589713
O         9.7425500585        9.9285256668        4.7062179986
O        -7.6417049166       13.3043836384        4.6584018541
O        -3.8496963563       13.2376293501        4.7374457636
O        -0.0033198595       13.1543097821        4.7618477285
O         3.7810603121       13.3169597648        4.7252663424
O         7.5445171509       13.4322841385        4.6183772835
O         1.7829223634        1.0410341562        6.1923248300
O         5.7299740766        1.1876804033        6.1863609976
O         9.6011064095        1.1200261417        6.1576743854
O        13.4286460329        1.0529418378        6.3217161827
O        17.1850558415        1.1727476428        6.3411349281
O        -0.1871846003        4.3866394432        6.3488056118
O         4.1210514271        4.4366379564        6.1790240154
O         7.5562063804        4.5171275749        6.2978552141
O        11.4700192194        4.6104830311        6.2550771822
O        15.2504946905        4.3953267604        6.2739303754
O        -1.9425330127        7.8192283637        6.3605974850
O         1.7682948973        7.8647397692        6.4225235628
O         5.7357650041        7.8709958406        6.2078716083
O         9.5460469608        7.7079018130        6.3596981091
O        13.5301375520        7.8846329419        6.4245976438
O        -3.8344204769       11.1159940872        6.1709420019
O        -0.0547596398       10.9600357069        6.2876061734
O         3.8418635225       11.1047415975        6.1886321977
O         7.6794020494       11.0963116873        6.1508283467
O        11.3179058596       11.1347495587        6.1875981726
O        -5.8236011219       14.3538606285        6.3171992457
O        -1.9629587470       14.3198947942        6.3016820789
O         1.9200508700       14.2939396635        6.2519693337
O         5.7217083439       14.4625356879        6.3397881831
O         9.6549528683       14.1441585032        6.2059970564
O        -0.1043190774        2.0113603948        7.9889771304
O         3.7058201951        2.0844282037        7.8448554917
O         7.6820059766        2.1093505551        8.0585805238
O        11.6135191383        2.1596477041        7.9779502223
O        15.1889410865        2.3066491770        8.1176372433
O        -1.8529921382        5.4814601546        7.9738469687
O         1.7322741406        5.3965842980        7.8560792556
O         5.6331131575        5.5788150893        8.3026858912
O        13.5090711543        5.5051723432        8.0638151976
O        -3.7683222831        9.0067867188        8.0395828535
O        -0.0397010853        8.8802318631        8.2607597469
O         3.8762148102        9.1932180115        7.9432880976
O         7.5407583717        9.0852453947        7.9534033129
O        11.5105546415        9.0293945911        7.9882158407
O        -5.6480086565       12.2402029110        8.1013408522
O        -1.9238957834       12.1173581071        8.0094440165
O         2.0745871420       12.2814347353        7.8547341176
O         5.7996419862       12.1038335873        7.8463991263
O         9.2513221798       12.1529518370        8.2229226409
O        -7.6833138727       15.3745547188        7.9715331534
O        -3.8829470628       15.4901790409        7.7342286764
O         0.0162435111       15.4165197039        7.8893341290
O         3.7981899365       15.4207964494        7.9869953655
O         7.6302075370       15.3320659432        7.8556379355
Ce         0.0000000000        2.2090320000        0.7810110000
Ce         3.8261550000        2.2090320000        0.7810110000
Ce         7.6523100000        2.2090320000        0.7810110000
Ce        11.4784640000        2.2090320000        0.7810110000
Ce        15.3046190000        2.2090320000        0.7810110000
Ce        -1.9130770000        5.5225790000        0.7810110000
Ce         1.9130770000        5.5225790000        0.7810110000
Ce         5.7392320000        5.5225790000        0.7810110000
Ce         9.5653870000        5.5225790000        0.7810110000
Ce        13.3915420000        5.5225790000        0.7810110000
Ce        -3.8261550000        8.8361260000        0.7810110000
Ce         0.0000000000        8.8361260000        0.7810110000
Ce         3.8261550000        8.8361260000        0.7810110000
Ce         7.6523100000        8.8361260000        0.7810110000
Ce        11.4784640000        8.8361260000        0.7810110000
Ce        -5.7392320000       12.1496730000        0.7810110000
Ce        -1.9130770000       12.1496730000        0.7810110000
Ce         1.9130770000       12.1496730000        0.7810110000
Ce         5.7392320000       12.1496730000        0.7810110000
Ce         9.5653870000       12.1496730000        0.7810110000
Ce        -7.6523100000       15.4632200000        0.7810110000
Ce        -3.8261550000       15.4632200000        0.7810110000
Ce         0.0000000000       15.4632200000        0.7810110000
Ce         3.8261550000       15.4632200000        0.7810110000
Ce         7.6523100000       15.4632200000        0.7810110000
Ce         1.8779493611        1.0227458332        3.8904320502
Ce         5.8461449023        1.0279966175        3.8863502870
Ce         9.6209955499        1.0318067295        3.8871024567
Ce        13.4293635012        1.0912221562        3.9015869689
Ce        17.4214966085        1.1794264453        3.9865109104
Ce        -0.0684884888        4.4903819174        4.0273017027
Ce         3.8844429316        4.2310003304        4.0243623596
Ce         7.5694078315        4.5397757328        3.8831669751
Ce        11.4859617283        4.4554345551        3.9898678191
Ce        15.3298006671        4.4078450912        4.0276248096
Ce        -1.8706999893        7.6476288797        3.8959378759
Ce         1.9933012457        7.8186504971        3.9628328178
Ce         5.5194085017        7.6736008364        3.9047537275
Ce         9.5347416985        7.7375035579        4.0047266911
Ce        13.2533552368        7.8110019640        3.7516110601
Ce        -3.7662776170       11.0205940733        3.8094831127
Ce         0.0038547371       10.9645072831        3.8974879407
Ce         3.8922826512       11.1452000225        3.9232721916
Ce         7.6704650680       11.1116588322        3.7602094712
Ce        11.5846627364       11.0051958321        3.9843385709
Ce        -5.7049760659       14.3326593628        3.9465053980
Ce        -1.9415441104       14.2864134821        3.9454646503
Ce         1.9128151527       14.2774021276        3.8999512387
Ce         5.7801924906       14.5543904777        3.8892846135
Ce         9.5204632559       14.3551227974        3.8900412952
Ce         0.0574621810       -0.0133623308        7.2522034976
Ce         3.7618447242       -0.0550380886        6.9720494537
Ce         7.7182989794       -0.0320565301        7.1040797582
Ce        11.5396592989       -0.1249508752        6.9497153012
Ce        15.2898675344       -0.1031859227        7.1326539792
Ce        -2.0190061066        3.3854040667        7.1758478364
Ce         1.9711949677        3.2539013207        7.1378052379
Ce         5.8631540321        3.3641200242        7.0471649346
Ce         9.5949088385        3.2915277366        7.0557126219
Ce        13.3306780002        3.3453045983        7.0914686100
Ce        -3.8946810127        6.6465608820        7.1454574291
Ce        -0.0123409312        6.6061689250        7.0487194323